
***************************************************************
*                 Welcome to use GPUMD                        *
*     (Graphics Processing Units Molecular Dynamics)          *
*                     version 4.8                             *
*              This is the gpumd executable                   *
***************************************************************


---------------------------------------------------------------
Compiling options:
---------------------------------------------------------------

DEBUG is off: Use different PRNG seeds for different runs.

---------------------------------------------------------------
GPU information:
---------------------------------------------------------------

number of GPUs = 1
Device id:                   0
    Device name:             NVIDIA A100-PCIE-40GB
    Compute capability:      8.0
    Amount of global memory: 39.4945 GB
    Number of SMs:           108

---------------------------------------------------------------
Started running GPUMD.
---------------------------------------------------------------


---------------------------------------------------------------
Started initializing positions and related parameters.
---------------------------------------------------------------

Number of atoms is 228.
Use periodic boundary conditions along x.
Use periodic boundary conditions along y.
Use periodic boundary conditions along z.
Box matrix h = [a, b, c] is
   -1.4530709054e+01    1.4530709054e+01   -3.0325234268e-15
    0.0000000000e+00    0.0000000000e+00   -1.8857538182e+01
   -8.3893087839e+00   -8.3893087839e+00   -1.1546911887e-15
Inverse box matrix g = inv(h) is
   -3.4409883106e-02    9.1829582385e-18   -5.9599665822e-02
    3.4409883106e-02   -1.8841042406e-18   -5.9599665822e-02
    0.0000000000e+00   -5.3029191315e-02   -0.0000000000e+00
Do not specify initial velocities here.
Have no grouping method.
There is only one atom type.
    228 atoms of type 0.
Initialized velocities with default T = 300 K.

---------------------------------------------------------------
Finished initializing positions and related parameters.
---------------------------------------------------------------


---------------------------------------------------------------
Started executing the commands in run.in.
---------------------------------------------------------------

Use the NEP3 potential with 1 atom type.
    type 0 (Si with Z = 14).
    radial cutoff = 5 A.
    angular cutoff = 5 A.
    MN_radial = 53.
    enlarged MN_radial = 67.
    enlarged MN_angular = 67.
    n_max_radial = 10.
    n_max_angular = 10.
    basis_size_radial = 10.
    basis_size_angular = 10.
    l_max_3body = 4.
    l_max_4body = 2.
    l_max_5body = 1.
    ANN = 77-50-1.
    number of neural network parameters = 3951.
    number of descriptor parameters = 242.
    total number of parameters = 4193.
Initialized velocities with input T = 10 K.
Time step for this run is 1 fs.
