
***************************************************************
*                 Welcome to use GPUMD                        *
*     (Graphics Processing Units Molecular Dynamics)          *
*                     version 4.8                             *
*              This is the gpumd executable                   *
***************************************************************


---------------------------------------------------------------
Compiling options:
---------------------------------------------------------------

DEBUG is off: Use different PRNG seeds for different runs.

---------------------------------------------------------------
GPU information:
---------------------------------------------------------------

number of GPUs = 1
Device id:                   0
    Device name:             NVIDIA A100-PCIE-40GB
    Compute capability:      8.0
    Amount of global memory: 39.4945 GB
    Number of SMs:           108

---------------------------------------------------------------
Started running GPUMD.
---------------------------------------------------------------


---------------------------------------------------------------
Started initializing positions and related parameters.
---------------------------------------------------------------

Number of atoms is 1920.
Use periodic boundary conditions along x.
Use periodic boundary conditions along y.
Use periodic boundary conditions along z.
Box matrix h = [a, b, c] is
    0.0000000000e+00   -3.9149709000e-15   -7.3034931000e+01
    0.0000000000e+00   -2.4344977000e+01    0.0000000000e+00
   -2.1774809000e+01    1.0887405000e+01   -4.4720997000e-15
Inverse box matrix g = inv(h) is
    2.8120724105e-18   -2.0538118519e-02   -4.5924627858e-02
    0.0000000000e+00   -4.1076235151e-02   -0.0000000000e+00
   -1.3692078384e-02    2.2018541415e-18    0.0000000000e+00
Specify initial velocities here.
Have no grouping method.
There is only one atom type.
    1920 atoms of type 0.
Initialized velocities with data in model.xyz.

---------------------------------------------------------------
Finished initializing positions and related parameters.
---------------------------------------------------------------


---------------------------------------------------------------
Started executing the commands in run.in.
---------------------------------------------------------------

Use the NEP3 potential with 1 atom type.
    type 0 (Si with Z = 14).
    radial cutoff = 5 A.
    angular cutoff = 5 A.
    MN_radial = 53.
    enlarged MN_radial = 67.
    enlarged MN_angular = 67.
    n_max_radial = 10.
    n_max_angular = 10.
    basis_size_radial = 10.
    basis_size_angular = 10.
    l_max_3body = 4.
    l_max_4body = 2.
    l_max_5body = 1.
    ANN = 77-50-1.
    number of neural network parameters = 3951.
    number of descriptor parameters = 242.
    total number of parameters = 4193.
Dump position.
    every 400 steps.
Dump velocity.
    every 400 steps.
Time step for this run is 0.4 fs.
Use NVT ensemble for this run.
    choose the Nose-Hoover chain method.
    initial temperature is 675 K.
    final temperature is 675 K.
    tau_T is 100 time_step.
Run 400 steps.
