
***************************************************************
*                 Welcome to use GPUMD                        *
*     (Graphics Processing Units Molecular Dynamics)          *
*                     version 4.8                             *
*              This is the gpumd executable                   *
***************************************************************


---------------------------------------------------------------
Compiling options:
---------------------------------------------------------------

DEBUG is off: Use different PRNG seeds for different runs.

---------------------------------------------------------------
GPU information:
---------------------------------------------------------------

number of GPUs = 1
Device id:                   0
    Device name:             NVIDIA A100-PCIE-40GB
    Compute capability:      8.0
    Amount of global memory: 39.4945 GB
    Number of SMs:           108

---------------------------------------------------------------
Started running GPUMD.
---------------------------------------------------------------


---------------------------------------------------------------
Started initializing positions and related parameters.
---------------------------------------------------------------

Number of atoms is 1920.
Use periodic boundary conditions along x.
Use periodic boundary conditions along y.
Use periodic boundary conditions along z.
Box matrix h = [a, b, c] is
    0.0000000000e+00   -3.9149709097e-15   -7.3034931331e+01
    0.0000000000e+00   -2.4344977110e+01    0.0000000000e+00
   -2.1774809492e+01    1.0887404746e+01   -4.4720997440e-15
Inverse box matrix g = inv(h) is
    2.8120723619e-18   -2.0538117482e-02   -4.5924626821e-02
    0.0000000000e+00   -4.1076234965e-02   -0.0000000000e+00
   -1.3692078322e-02    2.2018541270e-18    0.0000000000e+00
Do not specify initial velocities here.
Have no grouping method.
There is only one atom type.
    1920 atoms of type 0.
Initialized velocities with default T = 300 K.

---------------------------------------------------------------
Finished initializing positions and related parameters.
---------------------------------------------------------------


---------------------------------------------------------------
Started executing the commands in run.in.
---------------------------------------------------------------

Use the NEP3 potential with 1 atom type.
    type 0 (Si with Z = 14).
    radial cutoff = 5 A.
    angular cutoff = 5 A.
    MN_radial = 53.
    enlarged MN_radial = 67.
    enlarged MN_angular = 67.
    n_max_radial = 10.
    n_max_angular = 10.
    basis_size_radial = 10.
    basis_size_angular = 10.
    l_max_3body = 4.
    l_max_4body = 2.
    l_max_5body = 1.
    ANN = 77-50-1.
    number of neural network parameters = 3951.
    number of descriptor parameters = 242.
    total number of parameters = 4193.
Initialized velocities with input T = 1400 K.
Time step for this run is 1 fs.
Use NVT ensemble for this run.
    choose the Bussi-Donadio-Parrinello method.
    initial temperature is 1400 K.
    final temperature is 300 K.
    tau_T is 100 time_step.
Dump thermo every 5000 steps.
Dump position.
    every 50000 steps.
Run 150000 steps.
    15000 steps completed.
    30000 steps completed.
    45000 steps completed.
    60000 steps completed.
    75000 steps completed.
    90000 steps completed.
    105000 steps completed.
    120000 steps completed.
    135000 steps completed.
    150000 steps completed.

---------------------------------------------------------------
Time used for this run = 273.434 second.
Speed of this run = 1.05327e+06 atom*step/second.
---------------------------------------------------------------


---------------------------------------------------------------
Finished executing the commands in run.in.
---------------------------------------------------------------


---------------------------------------------------------------
Time used = 273.451904 s.
---------------------------------------------------------------


---------------------------------------------------------------
Finished running GPUMD.
---------------------------------------------------------------

