
***************************************************************
*                 Welcome to use GPUMD                        *
*     (Graphics Processing Units Molecular Dynamics)          *
*                     version 4.8                             *
*              This is the gpumd executable                   *
***************************************************************


---------------------------------------------------------------
Compiling options:
---------------------------------------------------------------

DEBUG is off: Use different PRNG seeds for different runs.

---------------------------------------------------------------
GPU information:
---------------------------------------------------------------

number of GPUs = 1
Device id:                   0
    Device name:             NVIDIA A100-PCIE-40GB
    Compute capability:      8.0
    Amount of global memory: 39.4945 GB
    Number of SMs:           108

---------------------------------------------------------------
Started running GPUMD.
---------------------------------------------------------------


---------------------------------------------------------------
Started initializing positions and related parameters.
---------------------------------------------------------------

Number of atoms is 4000.
Use periodic boundary conditions along x.
Use periodic boundary conditions along y.
Use periodic boundary conditions along z.
Box matrix h = [a, b, c] is
    1.0877278000e+02    0.0000000000e+00    0.0000000000e+00
    0.0000000000e+00    2.7193199000e+01    0.0000000000e+00
    0.0000000000e+00    0.0000000000e+00    2.7193199000e+01
Inverse box matrix g = inv(h) is
    9.1934765297e-03    0.0000000000e+00    0.0000000000e+00
    0.0000000000e+00    3.6773900710e-02    0.0000000000e+00
    0.0000000000e+00    0.0000000000e+00    3.6773900710e-02
Specify initial velocities here.
Have no grouping method.
There is only one atom type.
    4000 atoms of type 0.
Initialized velocities with data in model.xyz.

---------------------------------------------------------------
Finished initializing positions and related parameters.
---------------------------------------------------------------


---------------------------------------------------------------
Started executing the commands in run.in.
---------------------------------------------------------------

Use the NEP3 potential with 1 atom type.
    type 0 (Si with Z = 14).
    radial cutoff = 5 A.
    angular cutoff = 5 A.
    MN_radial = 53.
    enlarged MN_radial = 67.
    enlarged MN_angular = 67.
    n_max_radial = 10.
    n_max_angular = 10.
    basis_size_radial = 10.
    basis_size_angular = 10.
    l_max_3body = 4.
    l_max_4body = 2.
    l_max_5body = 1.
    ANN = 77-50-1.
    number of neural network parameters = 3951.
    number of descriptor parameters = 242.
    total number of parameters = 4193.
Dump position.
    every 400 steps.
Dump velocity.
    every 400 steps.
Dump thermo every 400 steps.
Dump extended XYZ.
    every 400 steps.
    with velocity data.
Time step for this run is 0.4 fs.
Use NPT ensemble for this run.
    choose the SCR method.
    initial temperature is 300 K.
    final temperature is 300 K.
    tau_T is 20 time_step.
    isotropic pressure is 0 GPa.
    bulk modulus is 100 GPa.
    tau_p is 200 time_step.
Run 400 steps.
    40 steps completed.
    80 steps completed.
    120 steps completed.
    160 steps completed.
    200 steps completed.
    240 steps completed.
    280 steps completed.
    320 steps completed.
    360 steps completed.
    400 steps completed.

---------------------------------------------------------------
Time used for this run = 0.854472 second.
Speed of this run = 1.8725e+06 atom*step/second.
---------------------------------------------------------------


---------------------------------------------------------------
Finished executing the commands in run.in.
---------------------------------------------------------------


---------------------------------------------------------------
Time used = 0.873957 s.
---------------------------------------------------------------


---------------------------------------------------------------
Finished running GPUMD.
---------------------------------------------------------------

