
***************************************************************
*                 Welcome to use GPUMD                        *
*     (Graphics Processing Units Molecular Dynamics)          *
*                     version 4.8                             *
*              This is the gpumd executable                   *
***************************************************************


---------------------------------------------------------------
Compiling options:
---------------------------------------------------------------

DEBUG is off: Use different PRNG seeds for different runs.

---------------------------------------------------------------
GPU information:
---------------------------------------------------------------

number of GPUs = 1
Device id:                   0
    Device name:             NVIDIA A100-SXM4-80GB
    Compute capability:      8.0
    Amount of global memory: 79.2517 GB
    Number of SMs:           108

---------------------------------------------------------------
Started running GPUMD.
---------------------------------------------------------------


---------------------------------------------------------------
Started initializing positions and related parameters.
---------------------------------------------------------------

Number of atoms is 1728.
Use periodic boundary conditions along x.
Use periodic boundary conditions along y.
Use periodic boundary conditions along z.
Box matrix h = [a, b, c] is
    3.2786479000e+01    0.0000000000e+00    0.0000000000e+00
    0.0000000000e+00    3.2786479000e+01    0.0000000000e+00
    0.0000000000e+00    0.0000000000e+00    3.2786479000e+01
Inverse box matrix g = inv(h) is
    3.0500377915e-02    0.0000000000e+00    0.0000000000e+00
    0.0000000000e+00    3.0500377915e-02    0.0000000000e+00
    0.0000000000e+00    0.0000000000e+00    3.0500377915e-02
Specify initial velocities here.
Have no grouping method.
There is only one atom type.
    1728 atoms of type 0.
Initialized velocities with data in model.xyz.

---------------------------------------------------------------
Finished initializing positions and related parameters.
---------------------------------------------------------------


---------------------------------------------------------------
Started executing the commands in run.in.
---------------------------------------------------------------

Use the NEP3 potential with 1 atom type.
    type 0 (Si with Z = 14).
    radial cutoff = 5 A.
    angular cutoff = 5 A.
    MN_radial = 53.
    enlarged MN_radial = 67.
    enlarged MN_angular = 67.
    n_max_radial = 10.
    n_max_angular = 10.
    basis_size_radial = 10.
    basis_size_angular = 10.
    l_max_3body = 4.
    l_max_4body = 2.
    l_max_5body = 1.
    ANN = 77-50-1.
    number of neural network parameters = 3951.
    number of descriptor parameters = 242.
    total number of parameters = 4193.
Time step for this run is 1 fs.
Dump position.
    every 1000 steps.
Use NVT ensemble for this run.
    choose the Nose-Hoover chain method.
    initial temperature is 300 K.
    final temperature is 300 K.
    tau_T is 100 time_step.
Compute thermal conductivity using the HNEMD method.
    output_interval = 1000
    fe_x = 0 /A
    fe_y = 0 /A
    fe_z = 1e-05 /A
Run 2000000 steps.
    200000 steps completed.
    400000 steps completed.
    600000 steps completed.
    800000 steps completed.
    1000000 steps completed.
    1200000 steps completed.
    1400000 steps completed.
