
***************************************************************
*                 Welcome to use GPUMD                        *
*     (Graphics Processing Units Molecular Dynamics)          *
*                     version 4.8                             *
*              This is the gpumd executable                   *
***************************************************************


---------------------------------------------------------------
Compiling options:
---------------------------------------------------------------

DEBUG is off: Use different PRNG seeds for different runs.

---------------------------------------------------------------
GPU information:
---------------------------------------------------------------

number of GPUs = 1
Device id:                   0
    Device name:             NVIDIA A100-PCIE-40GB
    Compute capability:      8.0
    Amount of global memory: 39.4945 GB
    Number of SMs:           108

---------------------------------------------------------------
Started running GPUMD.
---------------------------------------------------------------


---------------------------------------------------------------
Started initializing positions and related parameters.
---------------------------------------------------------------

Number of atoms is 81120.
Use periodic boundary conditions along x.
Use periodic boundary conditions along y.
Use periodic boundary conditions along z.
Box matrix h = [a, b, c] is
    5.9243476000e+01    0.0000000000e+00    0.0000000000e+00
    0.0000000000e+00    5.4770613000e+01    0.0000000000e+00
    0.0000000000e+00    0.0000000000e+00    5.1344346000e+02
Inverse box matrix g = inv(h) is
    1.6879495727e-02    0.0000000000e+00    0.0000000000e+00
    0.0000000000e+00    1.8257966183e-02    0.0000000000e+00
    0.0000000000e+00    0.0000000000e+00    1.9476341173e-03
Specify initial velocities here.
Have no grouping method.
There is only one atom type.
    81120 atoms of type 0.
Initialized velocities with data in model.xyz.

---------------------------------------------------------------
Finished initializing positions and related parameters.
---------------------------------------------------------------


---------------------------------------------------------------
Started executing the commands in run.in.
---------------------------------------------------------------

Use the NEP3 potential with 1 atom type.
    type 0 (Si with Z = 14).
    radial cutoff = 5 A.
    angular cutoff = 5 A.
    MN_radial = 53.
    enlarged MN_radial = 67.
    enlarged MN_angular = 67.
    n_max_radial = 10.
    n_max_angular = 10.
    basis_size_radial = 10.
    basis_size_angular = 10.
    l_max_3body = 4.
    l_max_4body = 2.
    l_max_5body = 1.
    ANN = 77-50-1.
    number of neural network parameters = 3951.
    number of descriptor parameters = 242.
    total number of parameters = 4193.
Dump position.
    every 100 steps.
Dump velocity.
    every 100 steps.
Dump extended XYZ.
    every 100 steps.
    with velocity data.
Time step for this run is 1 fs.
Use NVE ensemble for this run.
Run 100 steps.
    10 steps completed.
    20 steps completed.
    30 steps completed.
    40 steps completed.
    50 steps completed.
    60 steps completed.
    70 steps completed.
    80 steps completed.
    90 steps completed.
    100 steps completed.

---------------------------------------------------------------
Time used for this run = 1.41682 second.
Speed of this run = 5.7255e+06 atom*step/second.
---------------------------------------------------------------


---------------------------------------------------------------
Finished executing the commands in run.in.
---------------------------------------------------------------


---------------------------------------------------------------
Time used = 1.631754 s.
---------------------------------------------------------------


---------------------------------------------------------------
Finished running GPUMD.
---------------------------------------------------------------

