
***************************************************************
*                 Welcome to use GPUMD                        *
*     (Graphics Processing Units Molecular Dynamics)          *
*                     version 4.8                             *
*              This is the gpumd executable                   *
***************************************************************


---------------------------------------------------------------
Compiling options:
---------------------------------------------------------------

DEBUG is off: Use different PRNG seeds for different runs.

---------------------------------------------------------------
GPU information:
---------------------------------------------------------------

number of GPUs = 1
Device id:                   0
    Device name:             NVIDIA A100-SXM4-80GB
    Compute capability:      8.0
    Amount of global memory: 79.2517 GB
    Number of SMs:           108

---------------------------------------------------------------
Started running GPUMD.
---------------------------------------------------------------


---------------------------------------------------------------
Started initializing positions and related parameters.
---------------------------------------------------------------

Number of atoms is 173184.
Use periodic boundary conditions along x.
Use periodic boundary conditions along y.
Use periodic boundary conditions along z.
Box matrix h = [a, b, c] is
    9.8589643129e+01    0.0000000000e+00    0.0000000000e+00
    0.0000000000e+00    6.9713405211e+01    0.0000000000e+00
    0.0000000000e+00    0.0000000000e+00    5.0810480987e+02
Inverse box matrix g = inv(h) is
    1.0143053248e-02    0.0000000000e+00    0.0000000000e+00
    0.0000000000e+00    1.4344443468e-02    0.0000000000e+00
    0.0000000000e+00    0.0000000000e+00    1.9680978817e-03
Do not specify initial velocities here.
Have no grouping method.
There is only one atom type.
    173184 atoms of type 0.
Initialized velocities with default T = 300 K.

---------------------------------------------------------------
Finished initializing positions and related parameters.
---------------------------------------------------------------


---------------------------------------------------------------
Started executing the commands in run.in.
---------------------------------------------------------------

Use the NEP3 potential with 1 atom type.
    type 0 (Si with Z = 14).
    radial cutoff = 5 A.
    angular cutoff = 5 A.
    MN_radial = 53.
    enlarged MN_radial = 67.
    enlarged MN_angular = 67.
    n_max_radial = 10.
    n_max_angular = 10.
    basis_size_radial = 10.
    basis_size_angular = 10.
    l_max_3body = 4.
    l_max_4body = 2.
    l_max_5body = 1.
    ANN = 77-50-1.
    number of neural network parameters = 3951.
    number of descriptor parameters = 242.
    total number of parameters = 4193.
Initialized velocities with input T = 10 K.
Time step for this run is 1 fs.
Use NPT ensemble for this run.
    choose the SCR method.
    initial temperature is 10 K.
    final temperature is 675 K.
    tau_T is 200 time_step.
    isotropic pressure is 0 GPa.
    bulk modulus is 100 GPa.
    tau_p is 1000 time_step.
Dump position.
    every 99999 steps.
Run 100000 steps.
    10000 steps completed.
    20000 steps completed.
    30000 steps completed.
    40000 steps completed.
    50000 steps completed.
    60000 steps completed.
    70000 steps completed.
    80000 steps completed.
    90000 steps completed.
    100000 steps completed.

---------------------------------------------------------------
Time used for this run = 1899.84 second.
Speed of this run = 9.11573e+06 atom*step/second.
---------------------------------------------------------------


---------------------------------------------------------------
Finished executing the commands in run.in.
---------------------------------------------------------------


---------------------------------------------------------------
Time used = 1900.184567 s.
---------------------------------------------------------------


---------------------------------------------------------------
Finished running GPUMD.
---------------------------------------------------------------

